<?xml version="1.0" encoding="iso-8859-1"?>

<configuration xmlns:xsi="http://www.w3.org/2001/XMLSchema-instance" xsi:noNamespaceSchemaLocation="http://sumo.sf.net/xsd/sumoConfiguration.xsd">

    <input>
        <net-file value="MK-map-tl.net.xml"/> 
        <route-files value="528-150-MK-map.rou.xml"/>
        <!--<additional-files value="bus_additional.add.xml" />-->
        <additional-files value="MK-map.poly.xml" /> 

    </input>

    <output>
     <!--
      <tripinfo-output value="output1-tripinfos.xml"/>  
      <vehroute-output value="output2-vehroutes.xml"/>  
      <netstate-dump value="output3_ex_sumo.sumo.tr"/>  
      <emission-output value="output4-emissions.xml"/>  
     -->
    </output>  

    <time>
        <begin value="0"/>
        <end value="1200"/>   <!--320 -->
        <step-length value="0.1"/>
    </time>

<!--
    <report>

        <no-duration-log value="true"/>
        <no-step-log value="true"/>
        <print-options value="false"/> 

    </report>
-->
</configuration>
